TITLE = "B0001"
VARIABLES = "x [pixel]", "y [pixel]", "z [pixel]", "Ezz [S]", "isValid"
ZONE T="Frame 0", I=42, J=43, K=42, F=POINT
STRANDID=1, SOLUTIONTIME=0
0 0 0 0 0
24 0 0 0 0
48 0 0 0 0
72 0 0 0 0
96 0 0 0 0
120 0 0 0 0
144 0 0 0 0
168 0 0 0 0
192 0 0 0 0
216 0 0 0 0
240 0 0 0 0
264 0 0 0 0
288 0 0 0 0
312 0 0 0 0
336 0 0 0 0
360 0 0 0 0
384 0 0 0 0
408 0 0 0 0
432 0 0 0 0
456 0 0 0 0
480 0 0 0 0
504 0 0 0 0
528 0 0 0 0
552 0 0 0 0
576 0 0 0 0
600 0 0 0 0
624 0 0 0 0
648 0 0 0 0
672 0 0 0 0
696 0 0 0 0
720 0 0 0 0
744 0 0 0 0
768 0 0 0 0
792 0 0 0 0
816 0 0 0 0
840 0 0 0 0
864 0 0 0 0
888 0 0 0 0
912 0 0 0 0
936 0 0 0 0
960 0 0 0 0
984 0 0 0 0
0 24 0 0 0
24 24 0 0 0
48 24 0 0 0
72 24 0 0 0
96 24 0 0 0
120 24 0 0 0
144 24 0 0 0
168 24 0 0 0
192 24 0 0 0
216 24 0 0 0
240 24 0 0 0
264 24 0 0 0
288 24 0 0 0
312 24 0 0 0
336 24 0 0 0
360 24 0 0 0
384 24 0 0 0
408 24 0 0 0
432 24 0 0 0
456 24 0 0 0
480 24 0 0 0
504 24 0 0 0
528 24 0 0 0
552 24 0 0 0
576 24 0 0 0
600 24 0 0 0
624 24 0 0 0
648 24 0 0 0
672 24 0 0 0
696 24 0 0 0
720 24 0 0 0
744 24 0 0 0
768 24 0 0 0
792 24 0 0 0
816 24 0 0 0
840 24 0 0 0
864 24 0 0 0
888 24 0 0 0
912 24 0 0 0
936 24 0 0 0
960 24 0 0 0
984 24 0 0 0
0 48 0 0 0
24 48 0 0 0
48 48 0 0 0
72 48 0 0 0
96 48 0 0 0
120 48 0 0 0
144 48 0 0 0
168 48 0 0 0
192 48 0 0 0
216 48 0 0 0
240 48 0 0 0
264 48 0 0 0
288 48 0 0 0
312 48 0 0 0
336 48 0 0 0
360 48 0 0 0
384 48 0 0 0
408 48 0 0 0
432 48 0 0 0
456 48 0 0 0
480 48 0 0 0
504 48 0 0 0
528 48 0 0 0
552 48 0 0 0
576 48 0 0 0
600 48 0 0 0
624 48 0 0 0
648 48 0 0 0
672 48 0 0 0
696 48 0 0 0
720 48 0 0 0
744 48 0 0 0
768 48 0 0 0
792 48 0 0 0
816 48 0 0 0
840 48 0 0 0
864 48 0 0 0
888 48 0 0 0
912 48 0 0 0
936 48 0 0 0
960 48 0 0 0
984 48 0 0 0
0 72 0 0 0
24 72 0 0 0
48 72 0 0 0
72 72 0 0 0
96 72 0 0 0
120 72 0 0 0
144 72 0 0 0
168 72 0 0 0
192 72 0 0 0
216 72 0 0 0
240 72 0 0 0
264 72 0 0 0
288 72 0 0 0
312 72 0 0 0
336 72 0 0 0
360 72 0 0 0
384 72 0 0 0
408 72 0 0 0
432 72 0 0 0
456 72 0 0 0
480 72 0 0 0
504 72 0 0 0
528 72 0 0 0
552 72 0 0 0
576 72 0 0 0
600 72 0 0 0
624 72 0 0 0
648 72 0 0 0
672 72 0 0 0
696 72 0 0 0
720 72 0 0 0
744 72 0 0 0
768 72 0 0 0
792 72 0 0 0
816 72 0 0 0
840 72 0 0 0
864 72 0 0 0
888 72 0 0 0
912 72 0 0 0
936 72 0 0 0
960 72 0 0 0
984 72 0 0 0
0 96 0 0 0
24 96 0 0 0
48 96 0 0 0
72 96 0 0 0
96 96 0 0 0
120 96 0 0 0
144 96 0 0 0
168 96 0 0 0
192 96 0 0 0
216 96 0 0 0
240 96 0 0 0
264 96 0 0 0
288 96 0 0 0
312 96 0 0 0
336 96 0 0 0
360 96 0 0 0
384 96 0 0 0
408 96 0 0 0
432 96 0 0 0
456 96 0 0 0
480 96 0 0 0
504 96 0 0 0
528 96 0 0 0
552 96 0 0 0
576 96 0 0 0
600 96 0 0 0
624 96 0 0 0
648 96 0 0 0
672 96 0 0 0
696 96 0 0 0
720 96 0 0 0
744 96 0 0 0
768 96 0 0 0
792 96 0 0 0
816 96 0 0 0
840 96 0 0 0
864 96 0 0 0
888 96 0 0 0
912 96 0 0 0
936 96 0 0 0
960 96 0 0 0
984 96 0 0 0
0 120 0 0 0
24 120 0 0 0
48 120 0 0 0
72 120 0 0 0
96 120 0 0 0
120 120 0 0 0
144 120 0 0 0
168 120 0 0 0
192 120 0 0 0
216 120 0 0 0
240 120 0 0 0
264 120 0 0 0
288 120 0 0 0
312 120 0 0 0
336 120 0 0 0
360 120 0 0 0
384 120 0 0 0
408 120 0 0 0
432 120 0 0 0
456 120 0 0 0
480 120 0 0 0
504 120 0 0 0
528 120 0 0 0
552 120 0 0 0
576 120 0 0 0
600 120 0 0 0
624 120 0 0 0
648 120 0 0 0
672 120 0 0 0
696 120 0 0 0
720 120 0 0 0
744 120 0 0 0
768 120 0 0 0
792 120 0 0 0
816 120 0 0 0
840 120 0 0 0
864 120 0 0 0
888 120 0 0 0
912 120 0 0 0
936 120 0 0 0
960 120 0 0 0
984 120 0 0 0
0 144 0 0 0
24 144 0 0 0
48 144 0 0 0
72 144 0 0 0
96 144 0 0 0
120 144 0 0 0
144 144 0 0 0
168 144 0 0 0
192 144 0 0 0
216 144 0 0 0
240 144 0 0 0
264 144 0 0 0
288 144 0 0 0
312 144 0 0 0
336 144 0 0 0
360 144 0 0 0
384 144 0 0 0
408 144 0 0 0
432 144 0 0 0
456 144 0 0 0
480 144 0 0 0
504 144 0 0 0
528 144 0 0 0
552 144 0 0 0
576 144 0 0 0
600 144 0 0 0
624 144 0 0 0
648 144 0 0 0
672 144 0 0 0
696 144 0 0 0
720 144 0 0 0
744 144 0 0 0
768 144 0 0 0
792 144 0 0 0
816 144 0 0 0
840 144 0 0 0
864 144 0 0 0
888 144 0 0 0
912 144 0 0 0
936 144 0 0 0
960 144 0 0 0
984 144 0 0 0
0 168 0 0 0
24 168 0 0 0
48 168 0 0 0
72 168 0 0 0
96 168 0 0 0
120 168 0 0 0
144 168 0 0 0
168 168 0 0 0
192 168 0 0 0
216 168 0 0 0
240 168 0 0 0
264 168 0 0 0
288 168 0 0 0
312 168 0 0 0
336 168 0 0 0
360 168 0 0 0
384 168 0 0 0
408 168 0 0 0
432 168 0 0 0
456 168 0 0 0
480 168 0 0 0
504 168 0 0 0
528 168 0 0 0
552 168 0 0 0
576 168 0 0 0
600 168 0 0 0
624 168 0 0 0
648 168 0 0 0
672 168 0 0 0
696 168 0 0 0
720 168 0 0 0
744 168 0 0 0
768 168 0 0 0
792 168 0 0 0
816 168 0 0 0
840 168 0 0 0
864 168 0 0 0
888 168 0 0 0
912 168 0 0 0
936 168 0 0 0
960 168 0 0 0
984 168 0 0 0
0 192 0 0 0
24 192 0 0 0
48 192 0 0 0
72 192 0 0 0
96 192 0 0 0
120 192 0 0 0
144 192 0 0 0
168 192 0 0 0
192 192 0 0 0
216 192 0 0 0
240 192 0 0 0
264 192 0 0 0
288 192 0 0 0
312 192 0 0 0
336 192 0 0 0
360 192 0 0 0
384 192 0 0 0
408 192 0 0 0
432 192 0 0 0
456 192 0 0 0
480 192 0 0 0
504 192 0 0 0
528 192 0 0 0
552 192 0 0 0
576 192 0 0 0
600 192 0 0 0
624 192 0 0 0
648 192 0 0 0
672 192 0 0 0
696 192 0 0 0
720 192 0 0 0
744 192 0 0 0
768 192 0 0 0
792 192 0 0 0
816 192 0 0 0
840 192 0 0 0
864 192 0 0 0
888 192 0 0 0
912 192 0 0 0
936 192 0 0 0
960 192 0 0 0
984 192 0 0 0
0 216 0 0 0
24 216 0 0 0
48 216 0 0 0
72 216 0 0 0
96 216 0 0 0
120 216 0 0 0
144 216 0 0 0
168 216 0 0 0
192 216 0 0 0
216 216 0 0 0
240 216 0 0 0
264 216 0 0 0
288 216 0 0 0
312 216 0 0 0
336 216 0 0 0
360 216 0 0 0
384 216 0 0 0
408 216 0 0 0
432 216 0 0 0
456 216 0 0 0
480 216 0 0 0
504 216 0 0 0
528 216 0 0 0
552 216 0 0 0
576 216 0 0 0
600 216 0 0 0
624 216 0 0 0
648 216 0 0 0
672 216 0 0 0
696 216 0 0 0
720 216 0 0 0
744 216 0 0 0
768 216 0 0 0
792 216 0 0 0
816 216 0 0 0
840 216 0 0 0
864 216 0 0 0
888 216 0 0 0
912 216 0 0 0
936 216 0 0 0
960 216 0 0 0
984 216 0 0 0
0 240 0 0 0
24 240 0 0 0
48 240 0 0 0
72 240 0 0 0
96 240 0 0 0
120 240 0 0 0
144 240 0 0 0
168 240 0 0 0
192 240 0 0 0
216 240 0 0 0
240 240 0 0 0
264 240 0 0 0
288 240 0 0 0
312 240 0 0 0
336 240 0 0 0
360 240 0 0 0
384 240 0 0 0
408 240 0 0 0
432 240 0 0 0
456 240 0 0 0
480 240 0 0 0
504 240 0 0 0
528 240 0 0 0
552 240 0 0 0
576 240 0 0 0
600 240 0 0 0
624 240 0 0 0
648 240 0 0 0
672 240 0 0 0
696 240 0 0 0
720 240 0 0 0
744 240 0 0 0
768 240 0 0 0
792 240 0 0 0
816 240 0 0 0
840 240 0 0 0
864 240 0 0 0
888 240 0 0 0
912 240 0 0 0
936 240 0 0 0
960 240 0 0 0
984 240 0 0 0
0 264 0 0 0
24 264 0 0 0
48 264 0 0 0
72 264 0 0 0
96 264 0 0 0
120 264 0 0 0
144 264 0 0 0
168 264 0 0 0
192 264 0 0 0
216 264 0 0 0
240 264 0 0 0
264 264 0 0 0
288 264 0 0 0
312 264 0 0 0
336 264 0 0 0
360 264 0 0 0
384 264 0 0 0
408 264 0 0 0
432 264 0 0 0
456 264 0 0 0
480 264 0 0 0
504 264 0 0 0
528 264 0 0 0
552 264 0 0 0
576 264 0 0 0
600 264 0 0 0
624 264 0 0 0
648 264 0 0 0
672 264 0 0 0
696 264 0 0 0
720 264 0 0 0
744 264 0 0 0
768 264 0 0 0
792 264 0 0 0
816 264 0 0 0
840 264 0 0 0
864 264 0 0 0
888 264 0 0 0
912 264 0 0 0
936 264 0 0 0
960 264 0 0 0
984 264 0 0 0
0 288 0 0 0
24 288 0 0 0
48 288 0 0 0
72 288 0 0 0
96 288 0 0 0
120 288 0 0 0
144 288 0 0 0
168 288 0 0 0
192 288 0 0 0
216 288 0 0 0
240 288 0 0 0
264 288 0 0 0
288 288 0 0 0
312 288 0 0 0
336 288 0 0 0
360 288 0 0 0
384 288 0 0 0
408 288 0 0 0
432 288 0 0 0
456 288 0 0 0
480 288 0 0 0
504 288 0 0 0
528 288 0 0 0
552 288 0 0 0
576 288 0 0 0
600 288 0 0 0
624 288 0 0 0
648 288 0 0 0
672 288 0 0 0
696 288 0 0 0
720 288 0 0 0
744 288 0 0 0
768 288 0 0 0
792 288 0 0 0
816 288 0 0 0
840 288 0 0 0
864 288 0 0 0
888 288 0 0 0
912 288 0 0 0
936 288 0 0 0
960 288 0 0 0
984 288 0 0 0
0 312 0 0 0
24 312 0 0 0
48 312 0 0 0
72 312 0 0 0
96 312 0 0 0
120 312 0 0 0
144 312 0 0 0
168 312 0 0 0
192 312 0 0 0
216 312 0 0 0
240 312 0 0 0
264 312 0 0 0
288 312 0 0 0
312 312 0 0 0
336 312 0 0 0
360 312 0 0 0
384 312 0 0 0
408 312 0 0 0
432 312 0 0 0
456 312 0 0 0
480 312 0 0 0
504 312 0 0 0
528 312 0 0 0
552 312 0 0 0
576 312 0 0 0
600 312 0 0 0
624 312 0 0 0
648 312 0 0 0
672 312 0 0 0
696 312 0 0 0
720 312 0 0 0
744 312 0 0 0
768 312 0 0 0
792 312 0 0 0
816 312 0 0 0
840 312 0 0 0
864 312 0 0 0
888 312 0 0 0
912 312 0 0 0
936 312 0 0 0
960 312 0 0 0
984 312 0 0 0
0 336 0 0 0
24 336 0 0 0
48 336 0 0 0
72 336 0 0 0
96 336 0 0 0
120 336 0 0 0
144 336 0 0 0
168 336 0 0 0
192 336 0 0 0
216 336 0 0 0
240 336 0 0 0
264 336 0 0 0
288 336 0 0 0
312 336 0 0 0
336 336 0 0 0
360 336 0 0 0
384 336 0 0 0
408 336 0 0 0
432 336 0 0 0
456 336 0 0 0
480 336 0 0 0
504 336 0 0 0
528 336 0 0 0
552 336 0 0 0
576 336 0 0 0
600 336 0 0 0
624 336 0 0 0
648 336 0 0 0
672 336 0 0 0
696 336 0 0 0
720 336 0 0 0
744 336 0 0 0
768 336 0 0 0
792 336 0 0 0
816 336 0 0 0
840 336 0 0 0
864 336 0 0 0
888 336 0 0 0
912 336 0 0 0
936 336 0 0 0
960 336 0 0 0
984 336 0 0 0
0 360 0 0 0
24 360 0 0 0
48 360 0 0 0
72 360 0 0 0
96 360 0 0 0
120 360 0 0 0
144 360 0 0 0
168 360 0 0 0
192 360 0 0 0
216 360 0 0 0
240 360 0 0 0
264 360 0 0 0
288 360 0 0 0
312 360 0 0 0
336 360 0 0 0
360 360 0 0 0
384 360 0 0 0
408 360 0 0 0
432 360 0 0 0
456 360 0 0 0
480 360 0 0 0
504 360 0 0 0
528 360 0 0 0
552 360 0 0 0
576 360 0 0 0
600 360 0 0 0
624 360 0 0 0
648 360 0 0 0
672 360 0 0 0
696 360 0 0 0
720 360 0 0 0
744 360 0 0 0
768 360 0 0 0
792 360 0 0 0
816 360 0 0 0
840 360 0 0 0
864 360 0 0 0
888 360 0 0 0
912 360 0 0 0
936 360 0 0 0
960 360 0 0 0
984 360 0 0 0
0 384 0 0 0
24 384 0 0 0
48 384 0 0 0
72 384 0 0 0
96 384 0 0 0
120 384 0 0 0
144 384 0 0 0
168 384 0 0 0
192 384 0 0 0
216 384 0 0 0
240 384 0 0 0
264 384 0 0 0
288 384 0 0 0
312 384 0 0 0
336 384 0 0 0
360 384 0 0 0
384 384 0 0 0
408 384 0 0 0
432 384 0 0 0
456 384 0 0 0
480 384 0 0 0
504 384 0 0 0
528 384 0 0 0
552 384 0 0 0
576 384 0 0 0
600 384 0 0 0
624 384 0 0 0
648 384 0 0 0
672 384 0 0 0
696 384 0 0 0
720 384 0 0 0
744 384 0 0 0
768 384 0 0 0
792 384 0 0 0
816 384 0 0 0
840 384 0 0 0
864 384 0 0 0
888 384 0 0 0
912 384 0 0 0
936 384 0 0 0
960 384 0 0 0
984 384 0 0 0
0 408 0 0 0
24 408 0 0 0
48 408 0 0 0
72 408 0 0 0
96 408 0 0 0
120 408 0 0 0
144 408 0 0 0
168 408 0 0 0
192 408 0 0 0
216 408 0 0 0
240 408 0 0 0
264 408 0 0 0
288 408 0 0 0
312 408 0 0 0
336 408 0 0 0
360 408 0 0 0
384 408 0 0 0
408 408 0 0 0
432 408 0 0 0
456 408 0 0 0
480 408 0 0 0
504 408 0 0 0
528 408 0 0 0
552 408 0 0 0
576 408 0 0 0
600 408 0 0 0
624 408 0 0 0
648 408 0 0 0
672 408 0 0 0
696 408 0 0 0
720 408 0 0 0
744 408 0 0 0
768 408 0 0 0
792 408 0 0 0
816 408 0 0 0
840 408 0 0 0
864 408 0 0 0
888 408 0 0 0
912 408 0 0 0
936 408 0 0 0
960 408 0 0 0
984 408 0 0 0
0 432 0 0 0
24 432 0 0 0
48 432 0 0 0
72 432 0 0 0
96 432 0 0 0
120 432 0 0 0
144 432 0 0 0
168 432 0 0 0
192 432 0 0 0
216 432 0 0 0
240 432 0 0 0
264 432 0 0 0
288 432 0 0 0
312 432 0 0 0
336 432 0 0 0
360 432 0 0 0
384 432 0 0 0
408 432 0 0 0
432 432 0 0 0
456 432 0 0 0
480 432 0 0 0
504 432 0 0 0
528 432 0 0 0
552 432 0 0 0
576 432 0 0 0
600 432 0 0 0
624 432 0 0 0
648 432 0 0 0
672 432 0 0 0
696 432 0 0 0
720 432 0 0 0
744 432 0 0 0
768 432 0 0 0
792 432 0 0 0
816 432 0 0 0
840 432 0 0 0
864 432 0 0 0
888 432 0 0 0
912 432 0 0 0
936 432 0 0 0
960 432 0 0 0
984 432 0 0 0
0 456 0 0 0
24 456 0 0 0
48 456 0 0 0
72 456 0 0 0
96 456 0 0 0
120 456 0 0 0
144 456 0 0 0
168 456 0 0 0
192 456 0 0 0
216 456 0 0 0
240 456 0 0 0
264 456 0 0 0
288 456 0 0 0
312 456 0 0 0
336 456 0 0 0
360 456 0 0 0
384 456 0 0 0
408 456 0 0 0
432 456 0 0 0
456 456 0 0 0
480 456 0 0 0
504 456 0 0 0
528 456 0 0 0
552 456 0 0 0
576 456 0 0 0
600 456 0 0 0
624 456 0 0 0
648 456 0 0 0
672 456 0 0 0
696 456 0 0 0
720 456 0 0 0
744 456 0 0 0
768 456 0 0 0
792 456 0 0 0
816 456 0 0 0
840 456 0 0 0
864 456 0 0 0
888 456 0 0 0
912 456 0 0 0
936 456 0 0 0
960 456 0 0 0
984 456 0 0 0
0 480 0 0 0
24 480 0 0 0
48 480 0 0 0
72 480 0 0 0
96 480 0 0 0
120 480 0 0 0
144 480 0 0 0
168 480 0 0 0
192 480 0 0 0
216 480 0 0 0
240 480 0 0 0
264 480 0 0 0
288 480 0 0 0
312 480 0 0 0
336 480 0 0 0
360 480 0 0 0
384 480 0 0 0
408 480 0 0 0
432 480 0 0 0
456 480 0 0 0
480 480 0 0 0
504 480 0 0 0
528 480 0 0 0
552 480 0 0 0
576 480 0 0 0
600 480 0 0 0
624 480 0 0 0
648 480 0 0 0
672 480 0 0 0
696 480 0 0 0
720 480 0 0 0
744 480 0 0 0
768 480 0 0 0
792 480 0 0 0
816 480 0 0 0
840 480 0 0 0
864 480 0 0 0
888 480 0 0 0
912 480 0 0 0
936 480 0 0 0
960 480 0 0 0
984 480 0 0 0
0 504 0 0 0
24 504 0 0 0
48 504 0 0 0
72 504 0 0 0
96 504 0 0 0
120 504 0 0 0
144 504 0 0 0
168 504 0 0 0
192 504 0 0 0
216 504 0 0 0
240 504 0 0 0
264 504 0 0 0
288 504 0 0 0
312 504 0 0 0
336 504 0 0 0
360 504 0 0 0
384 504 0 0 0
408 504 0 0 0
432 504 0 0 0
456 504 0 0 0
480 504 0 0 0
504 504 0 0 0
528 504 0 0 0
552 504 0 0 0
576 504 0 0 0
600 504 0 0 0
624 504 0 0 0
648 504 0 0 0
672 504 0 0 0
696 504 0 0 0
720 504 0 0 0
744 504 0 0 0
768 504 0 0 0
792 504 0 0 0
816 504 0 0 0
840 504 0 0 0
864 504 0 0 0
888 504 0 0 0
912 504 0 0 0
936 504 0 0 0
960 504 0 0 0
984 504 0 0 0
0 528 0 0 0
24 528 0 0 0
48 528 0 0 0
72 528 0 0 0
96 528 0 0 0
120 528 0 0 0
144 528 0 0 0
168 528 0 0 0
192 528 0 0 0
216 528 0 0 0
240 528 0 0 0
264 528 0 0 0
288 528 0 0 0
312 528 0 0 0
336 528 0 0 0
360 528 0 0 0
384 528 0 0 0
408 528 0 0 0
432 528 0 0 0
456 528 0 0 0
480 528 0 0 0
504 528 0 0 0
528 528 0 0 0
552 528 0 0 0
576 528 0 0 0
600 528 0 0 0
624 528 0 0 0
648 528 0 0 0
672 528 0 0 0
696 528 0 0 0
720 528 0 0 0
744 528 0 0 0
768 528 0 0 0
792 528 0 0 0
816 528 0 0 0
840 528 0 0 0
864 528 0 0 0
888 528 0 0 0
912 528 0 0 0
936 528 0 0 0
960 528 0 0 0
984 528 0 0 0
0 552 0 0 0
24 552 0 0 0
48 552 0 0 0
72 552 0 0 0
96 552 0 0 0
120 552 0 0 0
144 552 0 0 0
168 552 0 0 0
192 552 0 0 0
216 552 0 0 0
240 552 0 0 0
264 552 0 0 0
288 552 0 0 0
312 552 0 0 0
336 552 0 0 0
360 552 0 0 0
384 552 0 0 0
408 552 0 0 0
432 552 0 0 0
456 552 0 0 0
480 552 0 0 0
504 552 0 0 0
528 552 0 0 0
552 552 0 0 0
576 552 0 0 0
600 552 0 0 0
624 552 0 0 0
648 552 0 0 0
672 552 0 0 0
696 552 0 0 0
720 552 0 0 0
744 552 0 0 0
768 552 0 0 0
792 552 0 0 0
816 552 0 0 0
840 552 0 0 0
864 552 0 0 0
888 552 0 0 0
912 552 0 0 0
936 552 0 0 0
960 552 0 0 0
984 552 0 0 0
0 576 0 0 0
24 576 0 0 0
48 576 0 0 0
72 576 0 0 0
96 576 0 0 0
120 576 0 0 0
144 576 0 0 0
168 576 0 0 0
192 576 0 0 0
216 576 0 0 0
240 576 0 0 0
264 576 0 0 0
288 576 0 0 0
312 576 0 0 0
336 576 0 0 0
360 576 0 0 0
384 576 0 0 0
408 576 0 0 0
432 576 0 0 0
456 576 0 0 0
480 576 0 0 0
504 576 0 0 0
528 576 0 0 0
552 576 0 0 0
576 576 0 0 0
600 576 0 0 0
624 576 0 0 0
648 576 0 0 0
672 576 0 0 0
696 576 0 0 0
720 576 0 0 0
744 576 0 0 0
768 576 0 0 0
792 576 0 0 0
816 576 0 0 0
840 576 0 0 0
864 576 0 0 0
888 576 0 0 0
912 576 0 0 0
936 576 0 0 0
960 576 0 0 0
984 576 0 0 0
0 600 0 0 0
24 600 0 0 0
48 600 0 0 0
72 600 0 0 0
96 600 0 0 0
120 600 0 0 0
144 600 0 0 0
168 600 0 0 0
192 600 0 0 0
216 600 0 0 0
240 600 0 0 0
264 600 0 0 0
288 600 0 0 0
312 600 0 0 0
336 600 0 0 0
360 600 0 0 0
384 600 0 0 0
408 600 0 0 0
432 600 0 0 0
456 600 0 0 0
480 600 0 0 0
504 600 0 0 0
528 600 0 0 0
552 600 0 0 0
576 600 0 0 0
600 600 0 0 0
624 600 0 0 0
648 600 0 0 0
672 600 0 0 0
696 600 0 0 0
720 600 0 0 0
744 600 0 0 0
768 600 0 0 0
792 600 0 0 0
816 600 0 0 0
840 600 0 0 0
864 600 0 0 0
888 600 0 0 0
912 600 0 0 0
936 600 0 0 0
960 600 0 0 0
984 600 0 0 0
0 624 0 0 0
24 624 0 0 0
48 624 0 0 0
72 624 0 0 0
96 624 0 0 0
120 624 0 0 0
144 624 0 0 0
168 624 0 0 0
192 624 0 0 0
216 624 0 0 0
240 624 0 0 0
264 624 0 0 0
288 624 0 0 0
312 624 0 0 0
336 624 0 0 0
360 624 0 0 0
384 624 0 0 0
408 624 0 0 0
432 624 0 0 0
456 624 0 0 0
480 624 0 0 0
504 624 0 0 0
528 624 0 0 0
552 624 0 0 0
576 624 0 0 0
600 624 0 0 0
624 624 0 0 0
648 624 0 0 0
672 624 0 0 0
696 624 0 0 0
720 624 0 0 0
744 624 0 0 0
768 624 0 0 0
792 624 0 0 0
816 624 0 0 0
840 624 0 0 0
864 624 0 0 0
888 624 0 0 0
912 624 0 0 0
936 624 0 0 0
960 624 0 0 0
984 624 0 0 0
0 648 0 0 0
24 648 0 0 0
48 648 0 0 0
72 648 0 0 0
96 648 0 0 0
120 648 0 0 0
144 648 0 0 0
168 648 0 0 0
192 648 0 0 0
216 648 0 0 0
240 648 0 0 0
264 648 0 0 0
288 648 0 0 0
312 648 0 0 0
336 648 0 0 0
360 648 0 0 0
384 648 0 0 0
408 648 0 0 0
432 648 0 0 0
456 648 0 0 0
480 648 0 0 0
504 648 0 0 0
528 648 0 0 0
552 648 0 0 0
576 648 0 0 0
600 648 0 0 0
624 648 0 0 0
648 648 0 0 0
672 648 0 0 0
696 648 0 0 0
720 648 0 0 0
744 648 0 0 0
768 648 0 0 0
792 648 0 0 0
816 648 0 0 0
840 648 0 0 0
864 648 0 0 0
888 648 0 0 0
912 648 0 0 0
936 648 0 0 0
960 648 0 0 0
984 648 0 0 0
0 672 0 0 0
24 672 0 0 0
48 672 0 0 0
72 672 0 0 0
96 672 0 0 0
120 672 0 0 0
144 672 0 0 0
168 672 0 0 0
192 672 0 0 0
216 672 0 0 0
240 672 0 0 0
264 672 0 0 0
288 672 0 0 0
312 672 0 0 0
336 672 0 0 0
360 672 0 0 0
384 672 0 0 0
408 672 0 0 0
432 672 0 0 0
456 672 0 0 0
480 672 0 0 0
504 672 0 0 0
528 672 0 0 0
552 672 0 0 0
576 672 0 0 0
600 672 0 0 0
624 672 0 0 0
648 672 0 0 0
672 672 0 0 0
696 672 0 0 0
720 672 0 0 0
744 672 0 0 0
768 672 0 0 0
792 672 0 0 0
816 672 0 0 0
840 672 0 0 0
864 672 0 0 0
888 672 0 0 0
912 672 0 0 0
936 672 0 0 0
960 672 0 0 0
984 672 0 0 0
0 696 0 0 0
24 696 0 0 0
48 696 0 0 0
72 696 0 0 0
96 696 0 0 0
120 696 0 0 0
144 696 0 0 0
168 696 0 0 0
192 696 0 0 0
216 696 0 0 0
240 696 0 0 0
264 696 0 0 0
288 696 0 0 0
312 696 0 0 0
336 696 0 0 0
360 696 0 0 0
384 696 0 0 0
408 696 0 0 0
432 696 0 0 0
456 696 0 0 0
480 696 0 0 0
504 696 0 0 0
528 696 0 0 0
552 696 0 0 0
576 696 0 0 0
600 696 0 0 0
624 696 0 0 0
648 696 0 0 0
672 696 0 0 0
696 696 0 0 0
720 696 0 0 0
744 696 0 0 0
768 696 0 0 0
792 696 0 0 0
816 696 0 0 0
840 696 0 0 0
864 696 0 0 0
888 696 0 0 0
912 696 0 0 0
936 696 0 0 0
960 696 0 0 0
984 696 0 0 0
0 720 0 0 0
24 720 0 0 0
48 720 0 0 0
72 720 0 0 0
96 720 0 0 0
120 720 0 0 0
144 720 0 0 0
168 720 0 0 0
192 720 0 0 0
216 720 0 0 0
240 720 0 0 0
264 720 0 0 0
288 720 0 0 0
312 720 0 0 0
336 720 0 0 0
360 720 0 0 0
384 720 0 0 0
408 720 0 0 0
432 720 0 0 0
456 720 0 0 0
480 720 0 0 0
504 720 0 0 0
528 720 0 0 0
552 720 0 0 0
576 720 0 0 0
600 720 0 0 0
624 720 0 0 0
648 720 0 0 0
672 720 0 0 0
696 720 0 0 0
720 720 0 0 0
744 720 0 0 0
768 720 0 0 0
792 720 0 0 0
816 720 0 0 0
840 720 0 0 0
864 720 0 0 0
888 720 0 0 0
912 720 0 0 0
936 720 0 0 0
960 720 0 0 0
984 720 0 0 0
0 744 0 0 0
24 744 0 0 0
48 744 0 0 0
72 744 0 0 0
96 744 0 0 0
120 744 0 0 0
144 744 0 0 0
168 744 0 0 0
192 744 0 0 0
216 744 0 0 0
240 744 0 0 0
264 744 0 0 0
288 744 0 0 0
312 744 0 0 0
336 744 0 0 0
360 744 0 0 0
384 744 0 0 0
408 744 0 0 0
432 744 0 0 0
456 744 0 0 0
480 744 0 0 0
504 744 0 0 0
528 744 0 0 0
552 744 0 0 0
576 744 0 0 0
600 744 0 0 0
624 744 0 0 0
648 744 0 0 0
672 744 0 0 0
696 744 0 0 0
720 744 0 0 0
744 744 0 0 0
768 744 0 0 0
792 744 0 0 0
816 744 0 0 0
840 744 0 0 0
864 744 0 0 0
888 744 0 0 0
912 744 0 0 0
936 744 0 0 0
960 744 0 0 0
984 744 0 0 0
0 768 0 0 0
24 768 0 0 0
48 768 0 0 0
72 768 0 0 0
96 768 0 0 0
120 768 0 0 0
144 768 0 0 0
168 768 0 0 0
192 768 0 0 0
216 768 0 0 0
240 768 0 0 0
264 768 0 0 0
288 768 0 0 0
312 768 0 0 0
336 768 0 0 0
360 768 0 0 0
384 768 0 0 0
408 768 0 0 0
432 768 0 0 0
456 768 0 0 0
480 768 0 0 0
504 768 0 0 0
528 768 0 0 0
552 768 0 0 0
576 768 0 0 0
600 768 0 0 0
624 768 0 0 0
648 768 0 0 0
672 768 0 0 0
696 768 0 0 0
720 768 0 0 0
744 768 0 0 0
768 768 0 0 0
792 768 0 0 0
816 768 0 0 0
840 768 0 0 0
864 768 0 0 0
888 768 0 0 0
912 768 0 0 0
936 768 0 0 0
960 768 0 0 0
984 768 0 0 0
0 792 0 0 0
24 792 0 0 0
48 792 0 0 0
72 792 0 0 0
96 792 0 0 0
120 792 0 0 0
144 792 0 0 0
168 792 0 0 0
192 792 0 0 0
216 792 0 0 0
240 792 0 0 0
264 792 0 0 0
288 792 0 0 0
312 792 0 0 0
336 792 0 0 0
360 792 0 0 0
384 792 0 0 0
408 792 0 0 0
432 792 0 0 0
456 792 0 0 0
480 792 0 0 0
504 792 0 0 0
528 792 0 0 0
552 792 0 0 0
576 792 0 0 0
600 792 0 0 0
624 792 0 0 0
648 792 0 0 0
672 792 0 0 0
696 792 0 0 0
720 792 0 0 0
744 792 0 0 0
768 792 0 0 0
792 792 0 0 0
816 792 0 0 0
840 792 0 0 0
864 792 0 0 0
888 792 0 0 0
912 792 0 0 0
936 792 0 0 0
960 792 0 0 0
984 792 0 0 0
0 816 0 0 0
24 816 0 0 0
48 816 0 0 0
72 816 0 0 0
96 816 0 0 0
120 816 0 0 0
144 816 0 0 0
168 816 0 0 0
192 816 0 0 0
216 816 0 0 0
240 816 0 0 0
264 816 0 0 0
288 816 0 0 0
312 816 0 0 0
336 816 0 0 0
360 816 0 0 0
384 816 0 0 0
408 816 0 0 0
432 816 0 0 0
456 816 0 0 0
480 816 0 0 0
504 816 0 0 0
528 816 0 0 0
552 816 0 0 0
576 816 0 0 0
600 816 0 0 0
624 816 0 0 0
648 816 0 0 0
672 816 0 0 0
696 816 0 0 0
720 816 0 0 0
744 816 0 0 0
768 816 0 0 0
792 816 0 0 0
816 816 0 0 0
840 816 0 0 0
864 816 0 0 0
888 816 0 0 0
912 816 0 0 0
936 816 0 0 0
960 816 0 0 0
984 816 0 0 0
0 840 0 0 0
24 840 0 0 0
48 840 0 0 0
72 840 0 0 0
96 840 0 0 0
120 840 0 0 0
144 840 0 0 0
168 840 0 0 0
192 840 0 0 0
216 840 0 0 0
240 840 0 0 0
264 840 0 0 0
288 840 0 0 0
312 840 0 0 0
336 840 0 0 0
360 840 0 0 0
384 840 0 0 0
408 840 0 0 0
432 840 0 0 0
456 840 0 0 0
480 840 0 0 0
504 840 0 0 0
528 840 0 0 0
552 840 0 0 0
576 840 0 0 0
600 840 0 0 0
624 840 0 0 0
648 840 0 0 0
672 840 0 0 0
696 840 0 0 0
720 840 0 0 0
744 840 0 0 0
768 840 0 0 0
792 840 0 0 0
816 840 0 0 0
840 840 0 0 0
864 840 0 0 0
888 840 0 0 0
912 840 0 0 0
936 840 0 0 0
960 840 0 0 0
984 840 0 0 0
0 864 0 0 0
24 864 0 0 0
48 864 0 0 0
72 864 0 0 0
96 864 0 0 0
120 864 0 0 0
144 864 0 0 0
168 864 0 0 0
192 864 0 0 0
216 864 0 0 0
240 864 0 0 0
264 864 0 0 0
288 864 0 0 0
312 864 0 0 0
336 864 0 0 0
360 864 0 0 0
384 864 0 0 0
408 864 0 0 0
432 864 0 0 0
456 864 0 0 0
480 864 0 0 0
504 864 0 0 0
528 864 0 0 0
552 864 0 0 0
576 864 0 0 0
600 864 0 0 0
624 864 0 0 0
648 864 0 0 0
672 864 0 0 0
696 864 0 0 0
720 864 0 0 0
744 864 0 0 0
768 864 0 0 0
792 864 0 0 0
816 864 0 0 0
840 864 0 0 0
864 864 0 0 0
888 864 0 0 0
912 864 0 0 0
936 864 0 0 0
960 864 0 0 0
984 864 0 0 0
0 888 0 0 0
24 888 0 0 0
48 888 0 0 0
72 888 0 0 0
96 888 0 0 0
120 888 0 0 0
144 888 0 0 0
168 888 0 0 0
192 888 0 0 0
216 888 0 0 0
240 888 0 0 0
264 888 0 0 0
288 888 0 0 0
312 888 0 0 0
336 888 0 0 0
360 888 0 0 0
384 888 0 0 0
408 888 0 0 0
432 888 0 0 0
456 888 0 0 0
480 888 0 0 0
504 888 0 0 0
528 888 0 0 0
552 888 0 0 0
576 888 0 0 0
600 888 0 0 0
624 888 0 0 0
648 888 0 0 0
672 888 0 0 0
696 888 0 0 0
720 888 0 0 0
744 888 0 0 0
768 888 0 0 0
792 888 0 0 0
816 888 0 0 0
840 888 0 0 0
864 888 0 0 0
888 888 0 0 0
912 888 0 0 0
936 888 0 0 0
960 888 0 0 0
984 888 0 0 0
0 912 0 0 0
24 912 0 0 0
48 912 0 0 0
72 912 0 0 0
96 912 0 0 0
120 912 0 0 0
144 912 0 0 0
168 912 0 0 0
192 912 0 0 0
216 912 0 0 0
240 912 0 0 0
264 912 0 0 0
288 912 0 0 0
312 912 0 0 0
336 912 0 0 0
360 912 0 0 0
384 912 0 0 0
408 912 0 0 0
432 912 0 0 0
456 912 0 0 0
480 912 0 0 0
504 912 0 0 0
528 912 0 0 0
552 912 0 0 0
576 912 0 0 0
600 912 0 0 0
624 912 0 0 0
648 912 0 0 0
672 912 0 0 0
696 912 0 0 0
720 912 0 0 0
744 912 0 0 0
768 912 0 0 0
792 912 0 0 0
816 912 0 0 0
840 912 0 0 0
864 912 0 0 0
888 912 0 0 0
912 912 0 0 0
936 912 0 0 0
960 912 0 0 0
984 912 0 0 0
0 936 0 0 0
24 936 0 0 0
48 936 0 0 0
72 936 0 0 0
96 936 0 0 0
120 936 0 0 0
144 936 0 0 0
168 936 0 0 0
192 936 0 0 0
216 936 0 0 0
240 936 0 0 0
264 936 0 0 0
288 936 0 0 0
312 936 0 0 0
336 936 0 0 0
360 936 0 0 0
384 936 0 0 0
408 936 0 0 0
432 936 0 0 0
456 936 0 0 0
480 936 0 0 0
504 936 0 0 0
528 936 0 0 0
552 936 0 0 0
576 936 0 0 0
600 936 0 0 0
624 936 0 0 0
648 936 0 0 0
672 936 0 0 0
696 936 0 0 0
720 936 0 0 0
744 936 0 0 0
768 936 0 0 0
792 936 0 0 0
816 936 0 0 0
840 936 0 0 0
864 936 0 0 0
888 936 0 0 0
912 936 0 0 0
936 936 0 0 0
960 936 0 0 0
984 936 0 0 0
0 960 0 0 0
24 960 0 0 0
48 960 0 0 0
72 960 0 0 0
96 960 0 0 0
120 960 0 0 0
144 960 0 0 0
168 960 0 0 0
192 960 0 0 0
216 960 0 0 0
240 960 0 0 0
264 960 0 0 0
288 960 0 0 0
312 960 0 0 0
336 960 0 0 0
360 960 0 0 0
384 960 0 0 0
408 960 0 0 0
432 960 0 0 0
456 960 0 0 0
480 960 0 0 0
504 960 0 0 0
528 960 0 0 0
552 960 0 0 0
576 960 0 0 0
600 960 0 0 0
624 960 0 0 0
648 960 0 0 0
672 960 0 0 0
696 960 0 0 0
720 960 0 0 0
744 960 0 0 0
768 960 0 0 0
792 960 0 0 0
816 960 0 0 0
840 960 0 0 0
864 960 0 0 0
888 960 0 0 0
912 960 0 0 0
936 960 0 0 0
960 960 0 0 0
984 960 0 0 0
0 984 0 0 0
24 984 0 0 0
48 984 0 0 0
72 984 0 0 0
96 984 0 0 0
120 984 0 0 0
144 984 0 0 0
168 984 0 0 0
192 984 0 0 0
216 984 0 0 0
240 984 0 0 0
264 984 0 0 0
288 984 0 0 0
312 984 0 0 0
336 984 0 0 0
360 984 0 0 0
384 984 0 0 0
408 984 0 0 0
432 984 0 0 0
456 984 0 0 0
480 984 0 0 0
504 984 0 0 0
528 984 0 0 0
552 984 0 0 0
576 984 0 0 0
600 984 0 0 0
624 984 0 0 0
648 984 0 0 0
672 984 0 0 0
696 984 0 0 0
720 984 0 0 0
744 984 0 0 0
768 984 0 0 0
792 984 0 0 0
816 984 0 0 0
840 984 0 0 0
864 984 0 0 0
888 984 0 0 0
912 984 0 0 0
936 984 0 0 0
960 984 0 0 0
984 984 0 0 0
0 1008 0 0 0
24 1008 0 0 0
48 1008 0 0 0
72 1008 0 0 0
96 1008 0 0 0
120 1008 0 0 0
144 1008 0 0 0
168 1008 0 0 0
192 1008 0 0 0
216 1008 0 0 0
240 1008 0 0 0
264 1008 0 0 0
288 1008 0 0 0
312 1008 0 0 0
336 1008 0 0 0
360 1008 0 0 0
384 1008 0 0 0
408 1008 0 0 0
432 1008 0 0 0
456 1008 0 0 0
480 1008 0 0 0
504 1008 0 0 0
528 1008 0 0 0
552 1008 0 0 0
576 1008 0 0 0
600 1008 0 0 0
624 1008 0 0 0
648 1008 0 0 0
672 1008 0 0 0
696 1008 0 0 0
720 1008 0 0 0
744 1008 0 0 0
768 1008 0 0 0
792 1008 0 0 0
816 1008 0 0 0
840 1008 0 0 0
864 1008 0 0 0
888 1008 0 0 0
912 1008 0 0 0
936 1008 0 0 0
960 1008 0 0 0
984 1008 0 0 0
0 0 24 0 0
24 0 24 0 0
48 0 24 0 0
72 0 24 0 0
96 0 24 0 0
120 0 24 0 0
144 0 24 0 0
168 0 24 0 0
192 0 24 0 0
216 0 24 0 0
240 0 24 0 0
264 0 24 0 0
288 0 24 0 0
312 0 24 0 0
336 0 24 0 0
360 0 24 0 0
384 0 24 0 0
408 0 24 0 0
432 0 24 0 0
456 0 24 0 0
480 0 24 0 0
504 0 24 0 0
528 0 24 0 0
552 0 24 0 0
576 0 24 0 0
600 0 24 0 0
624 0 24 0 0
648 0 24 0 0
672 0 24 0 0
696 0 24 0 0
720 0 24 0 0
744 0 24 0 0
768 0 24 0 0
792 0 24 0 0
816 0 24 0 0
840 0 24 0 0
864 0 24 0 0
888 0 24 0 0
912 0 24 0 0
936 0 24 0 0
960 0 24 0 0
984 0 24 0 0
0 24 24 0 0
24 24 24 0 0
48 24 24 0 0
72 24 24 0 0
96 24 24 0 0
120 24 24 0 0
144 24 24 0 0
168 24 24 0 0
192 24 24 0 0
216 24 24 0 0
240 24 24 0 0
264 24 24 0 0
288 24 24 0 0
312 24 24 0 0
336 24 24 0 0
360 24 24 0 0
384 24 24 0 0
408 24 24 0 0
432 24 24 0 0
456 24 24 0 0
480 24 24 0 0
504 24 24 0 0
528 24 24 0 0
552 24 24 0 0
576 24 24 0 0
600 24 24 0 0
624 24 24 0 0
648 24 24 0 0
672 24 24 0 0
696 24 24 0 0
720 24 24 0 0
744 24 24 0 0
768 24 24 0 0
792 24 24 0 0
816 24 24 0 0
840 24 24 0 0
864 24 24 0 0
888 24 24 0 0
912 24 24 0 0
936 24 24 0 0
960 24 24 0 0
984 24 24 0 0
0 48 24 0 0
24 48 24 0 0
48 48 24 0 0
72 48 24 0 0
96 48 24 0 0
120 48 24 0 0
144 48 24 0 0
168 48 24 0 0
192 48 24 0 0
216 48 24 0 0
240 48 24 0 0
264 48 24 0 0
288 48 24 0 0
312 48 24 0 0
336 48 24 0 0
360 48 24 0 0
384 48 24 0 0
408 48 24 0 0
432 48 24 0 0
456 48 24 0 0
480 48 24 0 0
504 48 24 0 0
528 48 24 0 0
552 48 24 0 0
576 48 24 0 0
600 48 24 0 0
624 48 24 0 0
648 48 24 0 0
672 48 24 0 0
696 48 24 0 0
720 48 24 0 0
744 48 24 0 0
768 48 24 0 0
792 48 24 0 0
816 48 24 0 0
840 48 24 0 0
864 48 24 0 0
888 48 24 0 0
912 48 24 0 0
936 48 24 0 0
960 48 24 0 0
984 48 24 0 0
0 72 24 0 0
24 72 24 0 0
48 72 24 0 0
72 72 24 0 0
96 72 24 0 0
120 72 24 0 0
144 72 24 0 0
168 72 24 0 0
192 72 24 0 0
216 72 24 0 0
240 72 24 0 0
264 72 24 0 0
288 72 24 0 0
312 72 24 0 0
336 72 24 0 0
360 72 24 0 0
384 72 24 0 0
408 72 24 0 0
432 72 24 0 0
456 72 24 0 0
480 72 24 0 0
504 72 24 0 0
528 72 24 0 0
552 72 24 0 0
576 72 24 0 0
600 72 24 0 0
624 72 24 0 0
648 72 24 0 0
672 72 24 0 0
696 72 24 0 0
720 72 24 0 0
744 72 24 0 0
768 72 24 0 0
792 72 24 0 0
816 72 24 0 0
840 72 24 0 0
864 72 24 0 0
888 72 24 0 0
912 72 24 0 0
936 72 24 0 0
960 72 24 0 0
984 72 24 0 0
0 96 24 0 0
24 96 24 0 0
48 96 24 0 0
72 96 24 0 0
96 96 24 0 0
120 96 24 0 0
144 96 24 0 0
168 96 24 0 0
192 96 24 0 0
216 96 24 0 0
240 96 24 0 0
264 96 24 0 0
288 96 24 0 0
312 96 24 0 0
336 96 24 0 0
360 96 24 0 0
384 96 24 0 0
408 96 24 0 0
432 96 24 0 0
456 96 24 0 0
480 96 24 0 0
504 96 24 0 0
528 96 24 0 0
552 96 24 0 0
576 96 24 0 0
600 96 24 0 0
624 96 24 0 0
648 96 24 0 0
672 96 24 0 0
696 96 24 0 0
720 96 24 0 0
744 96 24 0 0
768 96 24 0 0
792 96 24 0 0
816 96 24 0 0
840 96 24 0 0
864 96 24 0 0
888 96 24 0 0
912 96 24 0 0
936 96 24 0 0
960 96 24 0 0
984 96 24 0 0
0 120 24 0 0
24 120 24 0 0
48 120 24 0 0
72 120 24 0 0
96 120 24 0 0
120 120 24 0 0
144 120 24 0 0
168 120 24 0 0
192 120 24 0 0
216 120 24 0 0
240 120 24 0 0
264 120 24 0 0
288 120 24 0 0
312 120 24 0 0
336 120 24 0 0
360 120 24 0 0
384 120 24 0 0
408 120 24 0 0
432 120 24 0 0
456 120 24 0 0
480 120 24 0 0
504 120 24 0 0
528 120 24 0 0
552 120 24 0 0
576 120 24 0 0
600 120 24 0 0
624 120 24 0 0
648 120 24 0 0
672 120 24 0 0
696 120 24 0 0
720 120 24 0 0
744 120 24 0 0
768 120 24 0 0
792 120 24 0 0
816 120 24 0 0
840 120 24 0 0
864 120 24 0 0
888 120 24 0 0
912 120 24 0 0
936 120 24 0 0
960 120 24 0 0
984 120 24 0 0
0 144 24 0 0
24 144 24 0 0
48 144 24 0 0
72 144 24 0 0
96 144 24 0 0
120 144 24 0 0
144 144 24 0 0
168 144 24 0 0
192 144 24 0 0
216 144 24 0 0
240 144 24 0 0
264 144 24 0 0
288 144 24 0 0
312 144 24 0 0
336 144 24 0 0
360 144 24 0 0
384 144 24 0 0
408 144 24 0 0
432 144 24 0 0
456 144 24 0 0
480 144 24 0 0
504 144 24 0 0
528 144 24 0 0
552 144 24 0 0
576 144 24 0 0
600 144 24 0 0
624 144 24 0 0
648 144 24 0 0
672 144 24 0 0
696 144 24 0 0
720 144 24 0 0
744 144 24 0 0
768 144 24 0 0
792 144 24 0 0
816 144 24 0 0
840 144 24 0 0
864 144 24 0 0
888 144 24 0 0
912 144 24 0 0
936 144 24 0 0
960 144 24 0 0
984 144 24 0 0
0 168 24 0 0
24 168 24 0 0
48 168 24 0 0
72 168 24 0 0
96 168 24 0 0
120 168 24 0 0
144 168 24 0 0
168 168 24 0 0
192 168 24 0 0
216 168 24 0 0
240 168 24 0 0
264 168 24 0 0
288 168 24 0 0
312 168 24 0 0
336 168 24 0 0
360 168 24 0 0
384 168 24 0 0
408 168 24 0 0
432 168 24 0 0
456 168 24 0 0
480 168 24 0 0
504 168 24 0 0
528 168 24 0 0
552 168 24 0 0
576 168 24 0 0
600 168 24 0 0
624 168 24 0 0
648 168 24 0 0
672 168 24 0 0
696 168 24 0 0
720 168 24 0 0
744 168 24 0 0
768 168 24 0 0
792 168 24 0 0
816 168 24 0 0
840 168 24 0 0
864 168 24 0 0
888 168 24 0 0
912 168 24 0 0
936 168 24 0 0
960 168 24 0 0
984 168 24 0 0
0 192 24 0 0
24 192 24 0 0
48 192 24 0 0
72 192 24 0 0
96 192 24 0 0
120 192 24 0 0
144 192 24 0 0
168 192 24 0 0
192 192 24 0 0
216 192 24 0 0
240 192 24 0 0
264 192 24 0 0
288 192 24 0 0
312 192 24 0 0
336 192 24 0 0
360 192 24 0 0
384 192 24 0 0
408 192 24 0 0
432 192 24 0 0